<?xml version="1.0" encoding="UTF-8"?>

<!-- generated on 2025-09-04 00:18:59 by Eclipse SUMO sumo Version 1.24.0
<sumoConfiguration xmlns:xsi="http://www.w3.org/2001/XMLSchema-instance" xsi:noNamespaceSchemaLocation="http://sumo.dlr.de/xsd/sumoConfiguration.xsd">

    <input>
        <net-file value="dqn.net.xml"/>
        <route-files value="dqn.rou.xml"/>
        <additional-files value="dqn.add.xml"/>
    </input>

    <output>
        <summary-output value="summary.xml"/>
        <tripinfo-output value="tripinfo.xml"/>
    </output>

    <time>
        <begin value="0"/>
        <end value="900"/>
        <step-length value="1.0"/>
    </time>

    <processing>
        <lateral-resolution value="0"/>
    </processing>

    <report>
        <verbose value="false"/>
        <no-warnings value="true"/>
        <no-step-log value="true"/>
    </report>

    <traci_server>
        <remote-port value="54877"/>
    </traci_server>

    <gui_only>
        <delay value="0"/>
    </gui_only>

</sumoConfiguration>
-->

<tripinfos xmlns:xsi="http://www.w3.org/2001/XMLSchema-instance" xsi:noNamespaceSchemaLocation="http://sumo.dlr.de/xsd/tripinfo_file.xsd">
    <tripinfo id="WB.0" depart="1.00" departLane="Node2_3_WB_2" departPos="5.10" departSpeed="0.00" departDelay="0.00" arrival="43.00" arrivalLane="Node2_7_NB_0" arrivalPos="146.96" arrivalSpeed="10.66" duration="42.00" routeLength="394.98" waitingTime="0.00" waitingCount="0" stopTime="0.00" timeLoss="6.68" rerouteNo="0" devices="tripinfo_WB.0" vType="car" speedFactor="0.83" vaporized=""/>
    <tripinfo id="WB.1" depart="8.00" departLane="Node2_3_WB_0" departPos="5.10" departSpeed="0.00" departDelay="0.00" arrival="45.00" arrivalLane="Node2_7_NB_0" arrivalPos="146.96" arrivalSpeed="14.65" duration="37.00" routeLength="394.98" waitingTime="0.00" waitingCount="0" stopTime="0.00" timeLoss="9.83" rerouteNo="0" devices="tripinfo_WB.1" vType="car" speedFactor="1.09" vaporized=""/>
    <tripinfo id="EB.2" depart="11.00" departLane="Node1_2_EB_2" departPos="5.10" departSpeed="0.00" departDelay="0.00" arrival="50.00" arrivalLane="Node2_5_SB_0" arrivalPos="182.86" arrivalSpeed="12.89" duration="39.00" routeLength="439.26" waitingTime="0.00" waitingCount="0" stopTime="0.00" timeLoss="6.09" rerouteNo="0" devices="tripinfo_EB.2" vType="car" speedFactor="0.99" vaporized=""/>
    <tripinfo id="EB.0" depart="4.00" departLane="Node1_2_EB_1" departPos="5.10" departSpeed="0.00" departDelay="0.00" arrival="51.00" arrivalLane="Node2_3_EB_0" arrivalPos="243.40" arrivalSpeed="11.29" duration="47.00" routeLength="517.39" waitingTime="0.00" waitingCount="0" stopTime="0.00" timeLoss="4.21" rerouteNo="0" devices="tripinfo_EB.0" vType="car" speedFactor="0.89" vaporized=""/>
    <tripinfo id="EB.1" depart="7.00" departLane="Node1_2_EB_2" departPos="5.10" departSpeed="0.00" departDelay="2.00" arrival="51.00" arrivalLane="Node2_3_EB_1" arrivalPos="243.40" arrivalSpeed="12.15" duration="44.00" routeLength="517.39" waitingTime="0.00" waitingCount="0" stopTime="0.00" timeLoss="3.88" rerouteNo="0" devices="tripinfo_EB.1" vType="car" speedFactor="0.94" vaporized=""/>
    <tripinfo id="NB.4" depart="14.00" departLane="Node2_5_NB_0" departPos="5.10" departSpeed="0.00" departDelay="0.00" arrival="55.00" arrivalLane="Node2_7_NB_0" arrivalPos="146.96" arrivalSpeed="11.81" duration="41.00" routeLength="352.28" waitingTime="2.00" waitingCount="1" stopTime="0.00" timeLoss="11.68" rerouteNo="0" devices="tripinfo_NB.4" vType="car" speedFactor="0.88" vaporized=""/>
    <tripinfo id="NB.5" depart="15.00" departLane="Node2_5_NB_1" departPos="5.10" departSpeed="0.00" departDelay="0.00" arrival="55.00" arrivalLane="Node2_7_NB_1" arrivalPos="146.96" arrivalSpeed="12.39" duration="40.00" routeLength="352.28" waitingTime="1.00" waitingCount="1" stopTime="0.00" timeLoss="12.12" rerouteNo="0" devices="tripinfo_NB.5" vType="car" speedFactor="0.94" vaporized=""/>
    <tripinfo id="SB.0" depart="8.00" departLane="Node2_7_SB_2" departPos="5.10" departSpeed="0.00" departDelay="0.00" arrival="56.00" arrivalLane="Node2_5_SB_0" arrivalPos="182.86" arrivalSpeed="13.25" duration="48.00" routeLength="352.65" waitingTime="13.00" waitingCount="1" stopTime="0.00" timeLoss="22.67" rerouteNo="0" devices="tripinfo_SB.0" vType="car" speedFactor="1.03" vaporized=""/>
    <tripinfo id="SB.1" depart="10.00" departLane="Node2_7_SB_1" departPos="5.10" departSpeed="0.00" departDelay="1.00" arrival="61.00" arrivalLane="Node2_3_EB_2" arrivalPos="243.40" arrivalSpeed="14.55" duration="51.00" routeLength="410.29" waitingTime="10.00" waitingCount="1" stopTime="0.00" timeLoss="24.21" rerouteNo="0" devices="tripinfo_SB.1" vType="car" speedFactor="1.12" vaporized=""/>
    <tripinfo id="NB.0" depart="0.00" departLane="Node2_5_NB_1" departPos="5.10" departSpeed="0.00" departDelay="0.00" arrival="63.00" arrivalLane="Node1_2_WB_2" arrivalPos="251.40" arrivalSpeed="13.89" duration="63.00" routeLength="454.29" waitingTime="19.00" waitingCount="1" stopTime="0.00" timeLoss="30.46" rerouteNo="0" devices="tripinfo_NB.0" vType="car" speedFactor="1.03" vaporized=""/>
    <tripinfo id="SB.2" depart="15.00" departLane="Node2_7_SB_0" departPos="5.10" departSpeed="0.00" departDelay="0.00" arrival="63.00" arrivalLane="Node2_3_EB_2" arrivalPos="243.40" arrivalSpeed="15.34" duration="48.00" routeLength="410.29" waitingTime="8.00" waitingCount="1" stopTime="0.00" timeLoss="21.76" rerouteNo="0" devices="tripinfo_SB.2" vType="car" speedFactor="1.16" vaporized=""/>
    <tripinfo id="NB.6" depart="23.00" departLane="Node2_5_NB_0" departPos="5.10" departSpeed="0.00" departDelay="0.00" arrival="63.00" arrivalLane="Node2_3_EB_0" arrivalPos="243.40" arrivalSpeed="13.07" duration="40.00" routeLength="430.20" waitingTime="0.00" waitingCount="0" stopTime="0.00" timeLoss="6.25" rerouteNo="0" devices="tripinfo_NB.6" vType="car" speedFactor="0.95" vaporized=""/>
    <tripinfo id="NB.1" depart="2.00" departLane="Node2_5_NB_2" departPos="5.10" departSpeed="0.00" departDelay="0.00" arrival="65.00" arrivalLane="Node1_2_WB_2" arrivalPos="251.40" arrivalSpeed="13.47" duration="63.00" routeLength="454.29" waitingTime="18.00" waitingCount="1" stopTime="0.00" timeLoss="30.67" rerouteNo="0" devices="tripinfo_NB.1" vType="car" speedFactor="1.05" vaporized=""/>
    <tripinfo id="SB.5" depart="28.00" departLane="Node2_7_SB_2" departPos="5.10" departSpeed="0.00" departDelay="0.00" arrival="66.00" arrivalLane="Node1_2_WB_0" arrivalPos="251.40" arrivalSpeed="12.86" duration="38.00" routeLength="402.29" waitingTime="0.00" waitingCount="0" stopTime="0.00" timeLoss="5.65" rerouteNo="0" devices="tripinfo_SB.5" vType="car" speedFactor="0.93" vaporized=""/>
    <tripinfo id="SB.6" depart="35.00" departLane="Node2_7_SB_0" departPos="5.10" departSpeed="0.00" departDelay="0.00" arrival="66.00" arrivalLane="Node2_5_SB_0" arrivalPos="182.86" arrivalSpeed="12.89" duration="31.00" routeLength="352.65" waitingTime="0.00" waitingCount="0" stopTime="0.00" timeLoss="4.56" rerouteNo="0" devices="tripinfo_SB.6" vType="car" speedFactor="0.99" vaporized=""/>
    <tripinfo id="SB.3" depart="16.00" departLane="Node2_7_SB_0" departPos="5.10" departSpeed="0.00" departDelay="0.00" arrival="67.00" arrivalLane="Node2_3_EB_2" arrivalPos="243.40" arrivalSpeed="12.94" duration="51.00" routeLength="410.29" waitingTime="6.00" waitingCount="1" stopTime="0.00" timeLoss="21.39" rerouteNo="0" devices="tripinfo_SB.3" vType="car" speedFactor="1.02" vaporized=""/>
    <tripinfo id="SB.4" depart="19.00" departLane="Node2_7_SB_1" departPos="5.10" departSpeed="0.00" departDelay="1.00" arrival="73.00" arrivalLane="Node2_3_EB_1" arrivalPos="243.40" arrivalSpeed="11.40" duration="54.00" routeLength="410.29" waitingTime="6.00" waitingCount="1" stopTime="0.00" timeLoss="19.66" rerouteNo="0" devices="tripinfo_SB.4" vType="car" speedFactor="0.89" vaporized=""/>
    <tripinfo id="SB.7" depart="44.00" departLane="Node2_7_SB_1" departPos="5.10" departSpeed="0.00" departDelay="0.00" arrival="74.00" arrivalLane="Node2_5_SB_0" arrivalPos="182.86" arrivalSpeed="13.66" duration="30.00" routeLength="352.65" waitingTime="0.00" waitingCount="0" stopTime="0.00" timeLoss="4.71" rerouteNo="0" devices="tripinfo_SB.7" vType="car" speedFactor="1.03" vaporized=""/>
    <tripinfo id="SB.8" depart="47.00" departLane="Node2_7_SB_2" departPos="5.10" departSpeed="0.00" departDelay="2.00" arrival="75.00" arrivalLane="Node2_5_SB_2" arrivalPos="182.86" arrivalSpeed="14.74" duration="28.00" routeLength="352.65" waitingTime="0.00" waitingCount="0" stopTime="0.00" timeLoss="4.37" rerouteNo="0" devices="tripinfo_SB.8" vType="car" speedFactor="1.09" vaporized=""/>
    <tripinfo id="SB.9" depart="49.00" departLane="Node2_7_SB_0" departPos="5.10" departSpeed="0.00" departDelay="3.00" arrival="78.00" arrivalLane="Node2_5_SB_0" arrivalPos="182.86" arrivalSpeed="14.44" duration="29.00" routeLength="352.65" waitingTime="0.00" waitingCount="0" stopTime="0.00" timeLoss="4.42" rerouteNo="0" devices="tripinfo_SB.9" vType="car" speedFactor="1.04" vaporized=""/>
    <tripinfo id="NB.2" depart="7.00" departLane="Node2_5_NB_0" departPos="5.10" departSpeed="0.00" departDelay="0.00" arrival="79.00" arrivalLane="Node1_2_WB_1" arrivalPos="251.40" arrivalSpeed="11.80" duration="72.00" routeLength="454.29" waitingTime="17.00" waitingCount="2" stopTime="0.00" timeLoss="32.51" rerouteNo="0" devices="tripinfo_NB.2" vType="car" speedFactor="0.86" vaporized=""/>
    <tripinfo id="SB.12" depart="53.00" departLane="Node2_7_SB_1" departPos="5.10" departSpeed="0.00" departDelay="1.00" arrival="88.00" arrivalLane="Node2_5_SB_1" arrivalPos="182.86" arrivalSpeed="11.35" duration="35.00" routeLength="352.65" waitingTime="0.00" waitingCount="0" stopTime="0.00" timeLoss="4.38" rerouteNo="0" devices="tripinfo_SB.12" vType="car" speedFactor="0.85" vaporized=""/>
    <tripinfo id="SB.10" depart="50.00" departLane="Node2_7_SB_1" departPos="5.10" departSpeed="0.00" departDelay="0.00" arrival="92.00" arrivalLane="Node1_2_WB_0" arrivalPos="251.40" arrivalSpeed="12.27" duration="42.00" routeLength="402.29" waitingTime="0.00" waitingCount="0" stopTime="0.00" timeLoss="8.39" rerouteNo="0" devices="tripinfo_SB.10" vType="car" speedFactor="0.90" vaporized=""/>
    <tripinfo id="SB.13" depart="55.00" departLane="Node2_7_SB_2" departPos="5.10" departSpeed="0.00" departDelay="1.00" arrival="92.00" arrivalLane="Node2_3_EB_2" arrivalPos="243.40" arrivalSpeed="14.11" duration="37.00" routeLength="410.29" waitingTime="0.00" waitingCount="0" stopTime="0.00" timeLoss="6.85" rerouteNo="0" devices="tripinfo_SB.13" vType="car" speedFactor="1.02" vaporized=""/>
    <tripinfo id="NB.3" depart="10.00" departLane="Node2_5_NB_0" departPos="5.10" departSpeed="0.00" departDelay="1.00" arrival="93.00" arrivalLane="Node1_2_WB_2" arrivalPos="251.40" arrivalSpeed="14.44" duration="83.00" routeLength="454.29" waitingTime="28.00" waitingCount="3" stopTime="0.00" timeLoss="50.63" rerouteNo="0" devices="tripinfo_NB.3" vType="car" speedFactor="1.05" vaporized=""/>
    <tripinfo id="SB.16" depart="67.00" departLane="Node2_7_SB_0" departPos="5.10" departSpeed="0.00" departDelay="0.00" arrival="95.00" arrivalLane="Node2_5_SB_1" arrivalPos="182.86" arrivalSpeed="15.16" duration="28.00" routeLength="352.65" waitingTime="0.00" waitingCount="0" stopTime="0.00" timeLoss="4.99" rerouteNo="0" devices="tripinfo_SB.16" vType="car" speedFactor="1.12" vaporized=""/>
    <tripinfo id="NB.7" depart="31.00" departLane="Node2_5_NB_2" departPos="5.10" departSpeed="0.00" departDelay="0.00" arrival="96.00" arrivalLane="Node1_2_WB_2" arrivalPos="251.40" arrivalSpeed="12.95" duration="65.00" routeLength="454.29" waitingTime="14.00" waitingCount="2" stopTime="0.00" timeLoss="31.47" rerouteNo="0" devices="tripinfo_NB.7" vType="car" speedFactor="1.01" vaporized=""/>
    <tripinfo id="SB.11" depart="52.00" departLane="Node2_7_SB_2" departPos="5.10" departSpeed="0.00" departDelay="1.00" arrival="96.00" arrivalLane="Node1_2_WB_0" arrivalPos="251.40" arrivalSpeed="11.26" duration="44.00" routeLength="402.29" waitingTime="0.00" waitingCount="0" stopTime="0.00" timeLoss="9.48" rerouteNo="0" devices="tripinfo_SB.11" vType="car" speedFactor="0.88" vaporized=""/>
    <tripinfo id="NB.8" depart="57.00" departLane="Node2_5_NB_0" departPos="5.10" departSpeed="0.00" departDelay="0.00" arrival="98.00" arrivalLane="Node1_2_WB_2" arrivalPos="251.40" arrivalSpeed="13.74" duration="41.00" routeLength="454.29" waitingTime="0.00" waitingCount="0" stopTime="0.00" timeLoss="7.10" rerouteNo="0" devices="tripinfo_NB.8" vType="car" speedFactor="1.00" vaporized=""/>
    <tripinfo id="SB.14" depart="60.00" departLane="Node2_7_SB_0" departPos="5.10" departSpeed="0.00" departDelay="0.00" arrival="100.00" arrivalLane="Node1_2_WB_0" arrivalPos="251.40" arrivalSpeed="11.75" duration="40.00" routeLength="402.29" waitingTime="0.00" waitingCount="0" stopTime="0.00" timeLoss="6.49" rerouteNo="0" devices="tripinfo_SB.14" vType="car" speedFactor="0.90" vaporized=""/>
    <tripinfo id="SB.15" depart="65.00" departLane="Node2_7_SB_1" departPos="5.10" departSpeed="0.00" departDelay="0.00" arrival="100.00" arrivalLane="Node1_2_WB_1" arrivalPos="251.40" arrivalSpeed="13.82" duration="35.00" routeLength="402.29" waitingTime="0.00" waitingCount="0" stopTime="0.00" timeLoss="7.21" rerouteNo="0" devices="tripinfo_SB.15" vType="car" speedFactor="1.08" vaporized=""/>
    <tripinfo id="NB.9" depart="62.00" departLane="Node2_5_NB_2" departPos="5.10" departSpeed="0.00" departDelay="0.00" arrival="108.00" arrivalLane="Node1_2_WB_2" arrivalPos="251.40" arrivalSpeed="13.10" duration="46.00" routeLength="454.29" waitingTime="3.00" waitingCount="1" stopTime="0.00" timeLoss="11.12" rerouteNo="0" devices="tripinfo_NB.9" vType="car" speedFactor="0.97" vaporized=""/>
    <tripinfo id="SB.17" depart="75.00" departLane="Node2_7_SB_1" departPos="5.10" departSpeed="0.00" departDelay="0.00" arrival="109.00" arrivalLane="Node2_5_SB_0" arrivalPos="182.86" arrivalSpeed="11.04" duration="34.00" routeLength="352.65" waitingTime="0.00" waitingCount="0" stopTime="0.00" timeLoss="4.40" rerouteNo="0" devices="tripinfo_SB.17" vType="car" speedFactor="0.88" vaporized=""/>
    <tripinfo id="NB.10" depart="68.00" departLane="Node2_5_NB_0" departPos="5.10" departSpeed="0.00" departDelay="0.00" arrival="114.00" arrivalLane="Node1_2_WB_2" arrivalPos="251.40" arrivalSpeed="13.86" duration="46.00" routeLength="454.29" waitingTime="1.00" waitingCount="1" stopTime="0.00" timeLoss="13.11" rerouteNo="0" devices="tripinfo_NB.10" vType="car" speedFactor="1.02" vaporized=""/>
    <tripinfo id="NB.11" depart="78.00" departLane="Node2_5_NB_1" departPos="5.10" departSpeed="0.00" departDelay="0.00" arrival="115.00" arrivalLane="Node2_3_EB_0" arrivalPos="243.40" arrivalSpeed="13.92" duration="37.00" routeLength="430.20" waitingTime="0.00" waitingCount="0" stopTime="0.00" timeLoss="6.72" rerouteNo="0" devices="tripinfo_NB.11" vType="car" speedFactor="1.04" vaporized=""/>
    <tripinfo id="SB.18" depart="77.00" departLane="Node2_7_SB_2" departPos="5.10" departSpeed="0.00" departDelay="0.00" arrival="116.00" arrivalLane="Node1_2_WB_0" arrivalPos="251.40" arrivalSpeed="11.81" duration="39.00" routeLength="402.29" waitingTime="0.00" waitingCount="0" stopTime="0.00" timeLoss="6.49" rerouteNo="0" devices="tripinfo_SB.18" vType="car" speedFactor="0.91" vaporized=""/>
    <tripinfo id="WB.2" depart="19.00" departLane="Node2_3_WB_2" departPos="5.10" departSpeed="0.00" departDelay="0.00" arrival="117.00" arrivalLane="Node2_7_NB_0" arrivalPos="146.96" arrivalSpeed="11.56" duration="98.00" routeLength="394.98" waitingTime="53.00" waitingCount="1" stopTime="0.00" timeLoss="64.31" rerouteNo="0" devices="tripinfo_WB.2" vType="car" speedFactor="0.87" vaporized=""/>
    <tripinfo id="SB.19" depart="79.00" departLane="Node2_7_SB_1" departPos="5.10" departSpeed="0.00" departDelay="1.00" arrival="117.00" arrivalLane="Node1_2_WB_1" arrivalPos="251.40" arrivalSpeed="14.07" duration="38.00" routeLength="402.29" waitingTime="0.00" waitingCount="0" stopTime="0.00" timeLoss="8.03" rerouteNo="0" devices="tripinfo_SB.19" vType="car" speedFactor="1.02" vaporized=""/>
    <tripinfo id="WB.4" depart="29.00" departLane="Node2_3_WB_2" departPos="5.10" departSpeed="0.00" departDelay="0.00" arrival="119.00" arrivalLane="Node2_7_NB_0" arrivalPos="146.96" arrivalSpeed="15.59" duration="90.00" routeLength="394.98" waitingTime="52.00" waitingCount="2" stopTime="0.00" timeLoss="65.46" rerouteNo="0" devices="tripinfo_WB.4" vType="car" speedFactor="1.18" vaporized=""/>
    <tripinfo id="EB.3" depart="12.00" departLane="Node1_2_EB_0" departPos="5.10" departSpeed="0.00" departDelay="0.00" arrival="120.00" arrivalLane="Node2_5_SB_0" arrivalPos="182.86" arrivalSpeed="11.96" duration="108.00" routeLength="439.26" waitingTime="62.00" waitingCount="1" stopTime="0.00" timeLoss="72.27" rerouteNo="0" devices="tripinfo_EB.3" vType="car" speedFactor="0.93" vaporized=""/>
    <tripinfo id="SB.20" depart="82.00" departLane="Node2_7_SB_2" departPos="5.10" departSpeed="0.00" departDelay="0.00" arrival="121.00" arrivalLane="Node1_2_WB_0" arrivalPos="251.40" arrivalSpeed="12.83" duration="39.00" routeLength="402.29" waitingTime="0.00" waitingCount="0" stopTime="0.00" timeLoss="7.13" rerouteNo="0" devices="tripinfo_SB.20" vType="car" speedFactor="0.94" vaporized=""/>
    <tripinfo id="WB.5" depart="32.00" departLane="Node2_3_WB_1" departPos="5.10" departSpeed="0.00" departDelay="2.00" arrival="122.00" arrivalLane="Node1_2_WB_2" arrivalPos="251.40" arrivalSpeed="15.39" duration="90.00" routeLength="517.52" waitingTime="47.00" waitingCount="1" stopTime="0.00" timeLoss="57.67" rerouteNo="0" devices="tripinfo_WB.5" vType="car" speedFactor="1.15" vaporized=""/>
    <tripinfo id="EB.5" depart="18.00" departLane="Node1_2_EB_2" departPos="5.10" departSpeed="0.00" departDelay="1.00" arrival="123.00" arrivalLane="Node2_3_EB_1" arrivalPos="243.40" arrivalSpeed="13.77" duration="105.00" routeLength="517.39" waitingTime="59.00" waitingCount="1" stopTime="0.00" timeLoss="68.12" rerouteNo="0" devices="tripinfo_EB.5" vType="car" speedFactor="1.01" vaporized=""/>
    <tripinfo id="WB.3" depart="27.00" departLane="Node2_3_WB_0" departPos="5.10" departSpeed="0.00" departDelay="0.00" arrival="123.00" arrivalLane="Node1_2_WB_1" arrivalPos="251.40" arrivalSpeed="15.16" duration="96.00" routeLength="517.52" waitingTime="52.00" waitingCount="1" stopTime="0.00" timeLoss="62.13" rerouteNo="0" devices="tripinfo_WB.3" vType="car" speedFactor="1.13" vaporized=""/>
    <tripinfo id="WB.7" depart="38.00" departLane="Node2_3_WB_1" departPos="5.10" departSpeed="0.00" departDelay="0.00" arrival="123.00" arrivalLane="Node2_7_NB_0" arrivalPos="146.96" arrivalSpeed="13.40" duration="85.00" routeLength="394.98" waitingTime="42.00" waitingCount="1" stopTime="0.00" timeLoss="54.70" rerouteNo="0" devices="tripinfo_WB.7" vType="car" speedFactor="0.97" vaporized=""/>
    <tripinfo id="EB.4" depart="15.00" departLane="Node1_2_EB_2" departPos="5.10" departSpeed="0.00" departDelay="0.00" arrival="124.00" arrivalLane="Node2_5_SB_0" arrivalPos="182.86" arrivalSpeed="12.92" duration="109.00" routeLength="439.26" waitingTime="62.00" waitingCount="1" stopTime="0.00" timeLoss="73.93" rerouteNo="0" devices="tripinfo_EB.4" vType="car" speedFactor="0.94" vaporized=""/>
    <tripinfo id="EB.6" depart="18.00" departLane="Node1_2_EB_1" departPos="5.10" departSpeed="0.00" departDelay="0.00" arrival="125.00" arrivalLane="Node2_3_EB_1" arrivalPos="243.40" arrivalSpeed="13.37" duration="107.00" routeLength="517.39" waitingTime="57.00" waitingCount="1" stopTime="0.00" timeLoss="67.83" rerouteNo="0" devices="tripinfo_EB.6" vType="car" speedFactor="0.97" vaporized=""/>
    <tripinfo id="WB.8" depart="45.00" departLane="Node2_3_WB_2" departPos="5.10" departSpeed="0.00" departDelay="0.00" arrival="126.00" arrivalLane="Node2_7_NB_0" arrivalPos="146.96" arrivalSpeed="12.13" duration="81.00" routeLength="394.98" waitingTime="35.00" waitingCount="1" stopTime="0.00" timeLoss="50.29" rerouteNo="0" devices="tripinfo_WB.8" vType="car" speedFactor="0.96" vaporized=""/>
    <tripinfo id="EB.8" depart="23.00" departLane="Node1_2_EB_1" departPos="5.10" departSpeed="0.00" departDelay="0.00" arrival="127.00" arrivalLane="Node2_5_SB_0" arrivalPos="182.86" arrivalSpeed="11.55" duration="104.00" routeLength="439.26" waitingTime="54.00" waitingCount="1" stopTime="0.00" timeLoss="68.14" rerouteNo="0" devices="tripinfo_EB.8" vType="car" speedFactor="0.92" vaporized=""/>
    <tripinfo id="WB.13" depart="61.00" departLane="Node2_3_WB_2" departPos="5.10" departSpeed="0.00" departDelay="0.00" arrival="128.00" arrivalLane="Node2_7_NB_0" arrivalPos="146.96" arrivalSpeed="13.98" duration="67.00" routeLength="394.98" waitingTime="21.00" waitingCount="1" stopTime="0.00" timeLoss="38.29" rerouteNo="0" devices="tripinfo_WB.13" vType="car" speedFactor="1.02" vaporized=""/>
    <tripinfo id="EB.10" depart="39.00" departLane="Node1_2_EB_1" departPos="5.10" departSpeed="0.00" departDelay="0.00" arrival="129.00" arrivalLane="Node2_3_EB_1" arrivalPos="243.40" arrivalSpeed="16.36" duration="90.00" routeLength="517.39" waitingTime="44.00" waitingCount="2" stopTime="0.00" timeLoss="57.77" rerouteNo="0" devices="tripinfo_EB.10" vType="car" speedFactor="1.18" vaporized=""/>
    <tripinfo id="EB.13" depart="46.00" departLane="Node1_2_EB_1" departPos="5.10" departSpeed="0.00" departDelay="0.00" arrival="129.00" arrivalLane="Node2_5_SB_0" arrivalPos="182.86" arrivalSpeed="13.27" duration="83.00" routeLength="439.26" waitingTime="34.00" waitingCount="1" stopTime="0.00" timeLoss="51.28" rerouteNo="0" devices="tripinfo_EB.13" vType="car" speedFactor="1.04" vaporized=""/>
    <tripinfo id="EB.9" depart="37.00" departLane="Node1_2_EB_2" departPos="5.10" departSpeed="0.00" departDelay="0.00" arrival="130.00" arrivalLane="Node2_7_NB_2" arrivalPos="146.96" arrivalSpeed="13.24" duration="93.00" routeLength="417.79" waitingTime="48.00" waitingCount="2" stopTime="0.00" timeLoss="62.60" rerouteNo="0" devices="tripinfo_EB.9" vType="car" speedFactor="1.02" vaporized=""/>
    <tripinfo id="WB.10" depart="51.00" departLane="Node2_3_WB_0" departPos="5.10" departSpeed="0.00" departDelay="1.00" arrival="130.00" arrivalLane="Node1_2_WB_1" arrivalPos="251.40" arrivalSpeed="12.81" duration="79.00" routeLength="517.52" waitingTime="26.00" waitingCount="1" stopTime="0.00" timeLoss="41.09" rerouteNo="0" devices="tripinfo_WB.10" vType="car" speedFactor="1.00" vaporized=""/>
    <tripinfo id="EB.14" depart="54.00" departLane="Node1_2_EB_0" departPos="5.10" departSpeed="0.00" departDelay="0.00" arrival="130.00" arrivalLane="Node2_5_SB_0" arrivalPos="182.86" arrivalSpeed="14.41" duration="76.00" routeLength="439.26" waitingTime="30.00" waitingCount="1" stopTime="0.00" timeLoss="48.31" rerouteNo="0" devices="tripinfo_EB.14" vType="car" speedFactor="1.17" vaporized=""/>
    <tripinfo id="EB.16" depart="61.00" departLane="Node1_2_EB_0" departPos="5.10" departSpeed="0.00" departDelay="0.00" arrival="131.00" arrivalLane="Node2_3_EB_1" arrivalPos="243.40" arrivalSpeed="15.18" duration="70.00" routeLength="517.39" waitingTime="21.00" waitingCount="1" stopTime="0.00" timeLoss="36.84" rerouteNo="0" devices="tripinfo_EB.16" vType="car" speedFactor="1.14" vaporized=""/>
    <tripinfo id="WB.15" depart="90.00" departLane="Node2_3_WB_1" departPos="5.10" departSpeed="0.00" departDelay="0.00" arrival="131.00" arrivalLane="Node2_7_NB_0" arrivalPos="146.96" arrivalSpeed="13.31" duration="41.00" routeLength="394.98" waitingTime="0.00" waitingCount="0" stopTime="0.00" timeLoss="11.65" rerouteNo="0" devices="tripinfo_WB.15" vType="car" speedFactor="1.01" vaporized=""/>
    <tripinfo id="EB.7" depart="21.00" departLane="Node1_2_EB_0" departPos="5.10" departSpeed="0.00" departDelay="2.00" arrival="133.00" arrivalLane="Node2_3_EB_0" arrivalPos="243.40" arrivalSpeed="11.15" duration="112.00" routeLength="517.39" waitingTime="54.00" waitingCount="2" stopTime="0.00" timeLoss="66.71" rerouteNo="0" devices="tripinfo_EB.7" vType="car" speedFactor="0.83" vaporized=""/>
    <tripinfo id="WB.16" depart="92.00" departLane="Node2_3_WB_0" departPos="5.10" departSpeed="0.00" departDelay="0.00" arrival="133.00" arrivalLane="Node2_7_NB_0" arrivalPos="146.96" arrivalSpeed="14.08" duration="41.00" routeLength="394.98" waitingTime="0.00" waitingCount="0" stopTime="0.00" timeLoss="12.11" rerouteNo="0" devices="tripinfo_WB.16" vType="car" speedFactor="1.03" vaporized=""/>
    <tripinfo id="EB.18" depart="71.00" departLane="Node1_2_EB_2" departPos="5.10" departSpeed="0.00" departDelay="0.00" arrival="134.00" arrivalLane="Node2_5_SB_0" arrivalPos="182.86" arrivalSpeed="12.53" duration="63.00" routeLength="439.26" waitingTime="10.00" waitingCount="1" stopTime="0.00" timeLoss="27.41" rerouteNo="0" devices="tripinfo_EB.18" vType="car" speedFactor="0.94" vaporized=""/>
    <tripinfo id="WB.11" depart="52.00" departLane="Node2_3_WB_1" departPos="5.10" departSpeed="0.00" departDelay="0.00" arrival="135.00" arrivalLane="Node1_2_WB_0" arrivalPos="251.40" arrivalSpeed="11.28" duration="83.00" routeLength="517.52" waitingTime="25.00" waitingCount="1" stopTime="0.00" timeLoss="38.67" rerouteNo="0" devices="tripinfo_WB.11" vType="car" speedFactor="0.85" vaporized=""/>
    <tripinfo id="WB.17" depart="93.00" departLane="Node2_3_WB_1" departPos="5.10" departSpeed="0.00" departDelay="0.00" arrival="135.00" arrivalLane="Node1_2_WB_1" arrivalPos="251.40" arrivalSpeed="13.40" duration="42.00" routeLength="517.52" waitingTime="0.00" waitingCount="0" stopTime="0.00" timeLoss="4.98" rerouteNo="0" devices="tripinfo_WB.17" vType="car" speedFactor="1.02" vaporized=""/>
    <tripinfo id="EB.21" depart="84.00" departLane="Node1_2_EB_2" departPos="5.10" departSpeed="0.00" departDelay="0.00" arrival="136.00" arrivalLane="Node2_3_EB_1" arrivalPos="243.40" arrivalSpeed="12.60" duration="52.00" routeLength="517.39" waitingTime="0.00" waitingCount="0" stopTime="0.00" timeLoss="13.46" rerouteNo="0" devices="tripinfo_EB.21" vType="car" speedFactor="0.98" vaporized=""/>
    <tripinfo id="WB.18" depart="100.00" departLane="Node2_3_WB_1" departPos="5.10" departSpeed="0.00" departDelay="0.00" arrival="136.00" arrivalLane="Node2_7_NB_0" arrivalPos="146.96" arrivalSpeed="13.14" duration="36.00" routeLength="394.98" waitingTime="0.00" waitingCount="0" stopTime="0.00" timeLoss="6.93" rerouteNo="0" devices="tripinfo_WB.18" vType="car" speedFactor="1.02" vaporized=""/>
    <tripinfo id="EB.12" depart="43.00" departLane="Node1_2_EB_0" departPos="5.10" departSpeed="0.00" departDelay="0.00" arrival="137.00" arrivalLane="Node2_7_NB_2" arrivalPos="146.96" arrivalSpeed="11.85" duration="94.00" routeLength="417.79" waitingTime="42.00" waitingCount="2" stopTime="0.00" timeLoss="59.15" rerouteNo="0" devices="tripinfo_EB.12" vType="car" speedFactor="0.90" vaporized=""/>
    <tripinfo id="WB.6" depart="34.00" departLane="Node2_3_WB_2" departPos="5.10" departSpeed="0.00" departDelay="0.00" arrival="138.00" arrivalLane="Node2_5_SB_2" arrivalPos="182.86" arrivalSpeed="15.66" duration="104.00" routeLength="446.29" waitingTime="61.00" waitingCount="2" stopTime="0.00" timeLoss="75.75" rerouteNo="0" devices="tripinfo_WB.6" vType="car" speedFactor="1.17" vaporized=""/>
    <tripinfo id="EB.11" depart="40.00" departLane="Node1_2_EB_2" departPos="5.10" departSpeed="0.00" departDelay="0.00" arrival="138.00" arrivalLane="Node2_3_EB_1" arrivalPos="243.40" arrivalSpeed="14.76" duration="98.00" routeLength="517.39" waitingTime="45.00" waitingCount="2" stopTime="0.00" timeLoss="64.00" rerouteNo="0" devices="tripinfo_EB.11" vType="car" speedFactor="1.10" vaporized=""/>
    <tripinfo id="EB.15" depart="60.00" departLane="Node1_2_EB_2" departPos="5.10" departSpeed="0.00" departDelay="0.00" arrival="138.00" arrivalLane="Node2_7_NB_2" arrivalPos="146.96" arrivalSpeed="13.47" duration="78.00" routeLength="417.79" waitingTime="26.00" waitingCount="2" stopTime="0.00" timeLoss="47.00" rerouteNo="0" devices="tripinfo_EB.15" vType="car" speedFactor="1.00" vaporized=""/>
    <tripinfo id="EB.17" depart="70.00" departLane="Node1_2_EB_1" departPos="5.10" departSpeed="0.00" departDelay="0.00" arrival="140.00" arrivalLane="Node2_7_NB_2" arrivalPos="146.96" arrivalSpeed="13.46" duration="70.00" routeLength="417.79" waitingTime="18.00" waitingCount="2" stopTime="0.00" timeLoss="38.46" rerouteNo="0" devices="tripinfo_EB.17" vType="car" speedFactor="0.99" vaporized=""/>
    <tripinfo id="WB.19" depart="101.00" departLane="Node2_3_WB_0" departPos="5.10" departSpeed="0.00" departDelay="0.00" arrival="141.00" arrivalLane="Node2_7_NB_0" arrivalPos="146.96" arrivalSpeed="11.48" duration="40.00" routeLength="394.98" waitingTime="0.00" waitingCount="0" stopTime="0.00" timeLoss="6.95" rerouteNo="0" devices="tripinfo_WB.19" vType="car" speedFactor="0.89" vaporized=""/>
    <tripinfo id="EB.19" depart="77.00" departLane="Node1_2_EB_0" departPos="5.10" departSpeed="0.00" departDelay="0.00" arrival="143.00" arrivalLane="Node2_7_NB_2" arrivalPos="146.96" arrivalSpeed="11.58" duration="66.00" routeLength="417.79" waitingTime="12.00" waitingCount="2" stopTime="0.00" timeLoss="32.05" rerouteNo="0" devices="tripinfo_EB.19" vType="car" speedFactor="0.91" vaporized=""/>
    <tripinfo id="EB.24" depart="106.00" departLane="Node1_2_EB_2" departPos="5.10" departSpeed="0.00" departDelay="0.00" arrival="143.00" arrivalLane="Node2_5_SB_0" arrivalPos="182.86" arrivalSpeed="15.11" duration="37.00" routeLength="439.26" waitingTime="0.00" waitingCount="0" stopTime="0.00" timeLoss="6.12" rerouteNo="0" devices="tripinfo_EB.24" vType="car" speedFactor="1.09" vaporized=""/>